     8
 i =        0, time =        0.000, E =     1.0
  S         0.0                 0.0                 0.0
  S         1.0                 0.0                 0.0
  S         0.0                 1.0                 0.0
  S         0.0                 0.0                 1.0
  S         0.0                 1.0                 1.0
  S         1.0                 0.0                 1.0
  S         1.0                 1.0                 0.0
  S         1.0                 1.0                 1.0
     8
 i =        1, time =        0.001, E =     1.0
  S         0.0                 0.0                 0.0
  S         1.0                 0.0                 0.0
  S         0.0                 1.0                 0.0
  S         0.0                 0.0                 1.0
  S         0.0                 1.0                 1.0
  S         1.0                 0.0                 1.0
  S         1.0                 1.0                 0.0
  S         1.0                 1.0                 1.0
     8
 i =        2, time =        0.002, E =     1.0
  S         0.0                 0.0                 0.0
  S         1.0                 0.0                 0.0
  S         0.0                 1.0                 0.0
  S         0.0                 0.0                 1.0
  S         0.0                 1.0                 1.0
  S         1.0                 0.0                 1.0
  S         1.0                 1.0                 0.0
  S         1.0                 1.0                 1.0
     8
 i =        3, time =        0.003, E =     1.0
  S         0.0                 0.0                 0.0
  S         1.0                 0.0                 0.0
  S         0.0                 1.0                 0.0
  S         0.0                 0.0                 1.0
  S         0.0                 1.0                 1.0
  S         1.0                 0.0                 1.0
  S         1.0                 1.0                 0.0
  S         1.0                 1.0                 1.0
     8
 i =        4, time =        0.004, E =     1.0
  S         0.0                 0.0                 0.0
  S         1.0                 0.0                 0.0
  S         0.0                 1.0                 0.0
  S         0.0                 0.0                 1.0
  S         0.0                 1.0                 1.0
  S         1.0                 0.0                 1.0
  S         1.0                 1.0                 0.0
  S         1.0                 1.0                 1.0
     8
 i =        4, time =        0.005, E =     1.0
  S         0.0                 0.0                 0.0
  S         1.0                 0.0                 0.0
  S         0.0                 1.0                 0.0
  S         0.0                 0.0                 1.0
  S         0.0                 1.0                 1.0
  S         1.0                 0.0                 1.0
  S         1.0                 1.0                 0.0
  S         1.0                 1.0                 1.0
