     632
 i =        0, time =        0.000, E =     -3625.8088098251
  O        11.6999995000       10.9000005000       10.0099995000
  C        12.9699995000       10.3400015000       10.0799995000
  H        13.3099995000       10.5100005000       11.1199995000
  C        10.7399995000       10.0100005000       10.5600005000
  H        10.8299985000       10.0600005000       11.6699995000
  H        10.7100005000        8.2800005000        9.2199995000
  C        11.2699995000        8.5900005000       10.1199995000
  O        10.9700005000        7.5600005000       11.1099995000
  H        10.1199995000        7.2200005000       10.8400005000
  C         7.2799995000       10.4100005000        9.4099995000
  N         7.7099995000       11.7400005000        9.3599995000
  C         9.0199995000       11.6800005000        9.7199995000
  H         9.6099995000       12.5699995000        9.9099985000
  N         9.4299995000       10.3700005000        9.9899995000
  N         5.9399995000        8.5100005000        9.4599995000
  C         7.0799985000        7.7100005000        9.8399995000
  H         6.9699995000        6.6300005000        9.8899995000
  N         8.2799995000        8.2400005000       10.0699995000
  C         8.3499995000        9.5500005000        9.8299995000
  C         6.0099995000        9.8400005000        9.1599995000
  N         4.9499995000       10.5500005000        8.8599995000
  H         4.1299995000       10.0400015000        9.1099995000
  H         4.9799995000       11.5500005000        8.7899995000
  H        12.8499995000        8.6100005000        8.7200005000
  C        12.7499995000        8.8300005000        9.7899995000
  O        13.6899995000        8.0100005000       10.5299995000
  H        13.4000005000        7.7100005000       11.3899995000
  C        13.8699995000       11.1099995000        9.0299995000
  H        14.9199995000       10.8400005000        9.2599995000
  H        13.6399995000       12.1900005000        9.1599995000
  O        13.8000005000       10.6400005000        7.6599995000
  H        14.6199995000       10.8700005000        7.2099995000
  O        15.6400005000       16.5699995000       15.2199995000
  H        14.9399995000       17.0300005000       15.6799995000
  H        16.0299995000       17.2399995000       14.6599995000
  O         2.3699995000       14.9400005000       12.4599995000
  H         2.8999995000       15.6999995000       12.7099995000
  H         1.4799995000       15.1700005000       12.7099995000
  O         9.4899995000        4.6500005000        3.4199995000
  H        10.1699995000        3.9800005000        3.5299995000
  H         8.6599995000        4.1600005000        3.4999995000
  O        15.6299995000       13.8600005000       14.6799995000
  H        16.4299995000       13.3900005000       14.4699995000
  H        15.9099985000       14.7600005000       14.8299985000
  O         0.7599995000       12.1500005000        4.4099995000
  H         0.1999995000       11.6600005000        5.0199995000
  H         1.1799995000       11.4800005000        3.8899995000
  O         0.6899995000        5.5200005000        4.3499995000
  H        -0.1600005000        5.4600005000        3.8999995000
  H         1.2499995000        4.9000005000        3.8799995000
  O         6.8299995000       16.4500005000       15.1099995000
  H         6.4899995000       16.2500005000       14.2399985000
  H         6.0499995000       16.4800015000       15.6599995000
  O        17.8399995000        4.1700005000       17.7200005000
  H        17.1300005000        4.4300005000       18.3100005000
  H        18.2400005000        4.9900005000       17.4399995000
  O         1.6299995000        5.6000005000        0.2399995000
  H         1.0299995000        6.3300005000        0.1199995000
  H         2.0999995000        5.7900005000        1.0499995000
  O        17.4099985000        6.3100005000       11.9799995000
  H        18.1099995000        6.9200005000       11.8199985000
  H        17.8499995000        5.4800005000       12.1999985000
  O        11.1899995000        6.9600005000        4.8299995000
  H        10.9899995000        6.5200005000        3.9999995000
  H        11.8199985000        7.6400005000        4.5799995000
  O         2.9899995000        9.6900005000        0.2699995000
  H         3.4399995000        8.9800005000       -0.1800005000
  H         2.1299995000        9.7300005000       -0.1400005000
  O        18.8599995000        2.0300005000        0.7699995000
  H        18.2400005000        1.9200005000        1.4899995000
  H        18.3399995000        2.4000005000        0.0499995000
  O        13.7699995000       18.8000015000        7.7999995000
  H        13.5299985000       18.7500005000        8.7200005000
  H        13.1499985000       18.2200015000        7.3499995000
  O         8.6299995000       15.2300005000       17.9299995000
  H         8.3099995000       15.2500005000       17.0299995000
  H         8.2299995000       16.0000015000       18.3399995000
  O        14.3599995000       13.0900005000       12.2899995000
  H        15.0399995000       13.1800005000       11.6199995000
  H        14.7499995000       13.5100005000       13.0600005000
  O        14.1599995000        6.1100005000        3.4499995000
  H        13.7399985000        5.5500005000        4.0999995000
  H        13.8000005000        5.8400005000        2.6099995000
  O         4.9599995000       15.5200005000        0.4199995000
  H         4.8099995000       14.6400005000        0.7799995000
  H         5.4699995000       15.9600005000        1.1099995000
  O         5.5899995000       10.3700005000       15.9399995000
  H         4.6499995000       10.3000005000       15.8299985000
  H         5.6999995000       11.0599995000       16.5999995000
  O        10.3100005000       14.0500005000        2.1999995000
  H        11.1099995000       14.4400005000        1.8699995000
  H        10.1799995000       13.2600005000        1.6699995000
  O         4.0799995000        7.9100005000       17.7200005000
  H         4.9999995000        7.7500005000       17.5299995000
  H         3.6799995000        7.0400005000       17.7499985000
  O        18.4299995000       14.9800005000        0.3199995000
  H        18.5399995000       14.5800005000       -0.5500005000
  H        19.2499995000       14.8300005000        0.7799995000
  O        11.3999995000        9.6599995000        6.7599995000
  H        11.7899995000        8.9400005000        6.2499995000
  H        12.1500005000       10.0600005000        7.1999995000
  O         7.6399995000        3.0400005000       16.0700005000
  H         7.8499995000        2.2000005000       15.6699995000
  H         6.7100005000        2.9800005000       16.2699995000
  O         6.3799995000       16.5300005000       12.4099985000
  H         5.9199995000       15.8100005000       11.9699995000
  H         7.0599995000       16.7999995000       11.7799995000
  O         2.0699995000        3.7500005000        2.6899995000
  H         1.5899995000        4.0500005000        1.9199995000
  H         1.8799995000        2.8200005000        2.7499995000
  O         6.2799995000       15.8900005000        5.7299995000
  H         5.8099995000       15.9000005000        6.5599995000
  H         7.1999995000       15.9800015000        5.9799995000
  O         2.1499995000        0.6900005000        2.1199995000
  H         2.0599995000       -0.2499995000        2.2999995000
  H         1.2499995000        1.0100005000        2.0999995000
  O        16.1899995000       11.4900005000        2.4999995000
  H        15.9599995000       11.2399995000        3.3899995000
  H        15.4499995000       11.1800005000        1.9599995000
  O        11.6599995000       13.9800005000        8.1099995000
  H        11.7899995000       13.2500015000        8.7200005000
  H        12.4499995000       13.9900005000        7.5799995000
  O        13.0499995000        8.9300005000        4.4899995000
  H        13.2599995000        9.8700005000        4.5099995000
  H        13.8999995000        8.5100005000        4.6899995000
  O        14.3299985000       16.2700005000       11.7799995000
  H        13.7399985000       16.9700015000       12.0599995000
  H        13.8000005000       15.4699995000       11.8499995000
  O         7.8399995000       17.4500005000        0.6299995000
  H         7.3499995000       18.2700005000        0.6599995000
  H         7.4999995000       16.9300005000        1.3699995000
  O         9.6799995000        7.2000005000       16.0700005000
  H         9.2699995000        6.6200005000       16.6999995000
  H         9.0799995000        7.9400005000       15.9899985000
  O         5.9099995000       13.0800005000        7.7399995000
  H         5.9899995000       14.0300005000        7.6099995000
  H         6.7499995000       12.8199995000        8.1199995000
  O        16.3699995000        5.3100005000        0.8399995000
  H        17.0099995000        5.2800005000        1.5599995000
  H        16.0399995000        6.2100005000        0.8599995000
  O         6.5299995000       12.5600015000       13.3799995000
  H         7.3799995000       12.8600005000       13.6899995000
  H         5.9499995000       13.3100005000       13.4899995000
  O        15.4499995000        7.6000005000        5.2399995000
  H        16.0599985000        7.0400005000        5.7199995000
  H        14.9199995000        6.9900005000        4.7199995000
  O         5.0199995000       10.6300005000        2.0999995000
  H         5.1299995000        9.8500005000        2.6499995000
  H         4.6099995000       10.3100005000        1.2999995000
  O         4.9899995000       17.3300005000        3.7399995000
  H         5.3799995000       16.8200015000        4.4499995000
  H         4.1499995000       17.6200005000        4.0899995000
  O         1.1399995000       17.0500015000        3.1099995000
  H         1.1799995000       16.5699995000        3.9399995000
  H         1.4499995000       16.4200005000        2.4599995000
  O        17.0299995000       10.4100005000       15.8799995000
  H        17.3799985000       10.5500005000       15.0099995000
  H        17.0499985000        9.4600005000       15.9999985000
  O        18.0799985000        7.7100005000        2.9499995000
  H        17.8399995000        7.6800005000        3.8699995000
  H        18.9999995000        7.4700005000        2.9399995000
  O        13.8399995000       13.3500005000       18.6099995000
  H        13.9699995000       13.4800015000       19.5500005000
  H        13.8299995000       12.4000005000       18.4999985000
  O         5.5199995000       15.8000015000        8.3000005000
  H         5.7999995000       15.2700005000        9.0500005000
  H         5.4099995000       16.6800005000        8.6599985000
  O        10.6099995000        5.9400005000       13.5599995000
  H        10.3699985000        6.4800005000       14.3199985000
  H        11.1399995000        6.5100005000       13.0199995000
  O         8.9199995000        0.3600005000        6.1799995000
  H         8.4399995000       -0.0699995000        5.4699995000
  H         9.7499995000        0.6200005000        5.7799995000
  O         5.3999995000       10.0500005000       13.1599995000
  H         5.7499995000        9.7600005000       14.0099995000
  H         5.7299995000       10.9400005000       13.0600005000
  O        12.0199995000       18.0300005000        2.9799995000
  H        11.3699995000       17.3999995000        3.2999995000
  H        12.4499995000       17.5699995000        2.2599995000
  O        11.4600005000       15.3900015000       18.5599985000
  H        11.9799995000       14.9600005000       17.8800005000
  H        10.5599995000       15.1399995000       18.3599995000
  O         7.4199995000       15.3600005000        2.0799995000
  H         8.2499995000       14.9099995000        1.9399995000
  H         6.8399995000       14.7000005000        2.4499995000
  O        16.3000005000        7.4200005000        9.3899995000
  H        15.5799985000        8.0000005000        9.6599995000
  H        16.5199995000        6.9200005000       10.1699995000
  O         7.2499995000       12.0800005000        2.0099995000
  H         7.2399995000       12.6100005000        2.8099995000
  H         6.5899995000       11.4000005000        2.1699995000
  O         1.0299995000       12.1900005000        8.1300005000
  H         0.8799995000       13.1000005000        7.8999995000
  H         1.9199995000       12.1700005000        8.4799995000
  O         3.5999995000        2.1700005000       11.8699985000
  H         4.3799995000        1.6800005000       12.1400005000
  H         2.8799995000        1.5500005000       11.9999985000
  O         3.0999995000        9.7399995000       15.8799995000
  H         2.7599995000       10.5400015000       16.2899995000
  H         3.2799995000        9.1499995000       16.6199995000
  O        12.9499995000       12.1200005000        3.6699995000
  H        12.0599995000       11.9099995000        3.4199995000
  H        13.2399995000       12.7800005000        3.0299995000
  O        17.2200005000        4.9700005000        3.3899995000
  H        17.3499995000        4.0500005000        3.6199995000
  H        16.3599995000        5.1900005000        3.7799995000
  O         4.9799995000        2.5500005000       17.4599995000
  H         5.3899995000        2.8100005000       18.3000005000
  H         4.0499995000        2.7500005000       17.5899995000
  O         5.1299995000        4.5500005000        2.9999995000
  H         5.1099995000        4.8200005000        3.9099995000
  H         4.2199995000        4.6300005000        2.6999995000
  O        11.6499995000        5.7400005000        2.0599995000
  H        11.7199995000        4.9200005000        1.5599995000
  H        10.7100005000        5.9600005000        2.0199995000
  O        12.1899995000        7.9800005000       15.7099995000
  H        11.3299995000        7.7800005000       16.0499985000
  H        12.7499995000        7.2900005000       16.0799985000
  O         1.9099995000       12.3800015000       16.9800005000
  H         1.5299995000       13.2600005000       17.0600005000
  H         2.8099995000       12.4899995000       17.3099985000
  O         6.3999995000        9.1100005000        4.1799995000
  H         6.6899995000        9.7800005000        4.7899995000
  H         6.4299995000        8.3000005000        4.6799995000
  O        12.3399995000        1.7100005000       16.8599995000
  H        12.5399995000        2.3800005000       16.2099995000
  H        12.0899995000        0.9400005000       16.3499995000
  O        15.8399995000       18.8300005000        1.0799995000
  H        15.6799995000       17.9200005000        0.8199995000
  H        15.3499995000       19.3500005000        0.4399995000
  O         7.9999995000       12.0000015000        5.4099995000
  H         8.8899995000       12.2000005000        5.1199995000
  H         8.0999995000       11.2000005000        5.9299995000
  O         9.2199995000        4.8700005000       17.6999995000
  H         9.5399995000        4.3700005000       18.4499995000
  H         8.6499995000        4.2600005000       17.2299985000
  O        11.3000005000        2.8800005000        3.8499995000
  H        11.2300005000        2.0500005000        4.3099995000
  H        11.9600005000        3.3700005000        4.3399995000
  O        18.6599985000       16.0700005000        6.9499995000
  H        17.7799995000       16.3800015000        6.6999995000
  H        18.8000005000       15.3100005000        6.3799995000
  O        14.6799995000        1.3800005000       18.2099995000
  H        15.3100005000        1.7200005000       17.5899995000
  H        13.8699995000        1.2600005000       17.6999995000
  O        16.6300005000       17.6600015000        5.6299995000
  H        16.2699995000       18.5200005000        5.8399995000
  H        17.0099995000       17.7500005000        4.7599995000
  O         8.2199995000       17.2500005000       10.5100005000
  H         8.3099995000       18.0200005000        9.9399995000
  H         8.9899995000       16.7199995000       10.3199995000
  O        17.6500005000        9.6400005000       10.8299985000
  H        18.5099995000        9.2100015000       10.9399995000
  H        17.6899995000       10.0100005000        9.9399995000
  O        13.9600005000        4.2600005000        0.4499995000
  H        14.8199995000        4.6600005000        0.4199995000
  H        14.0999995000        3.4000005000        0.8299995000
  O         2.9499995000        9.3300005000        5.1499995000
  H         3.3699995000       10.1600005000        5.3800005000
  H         2.7399995000        9.4200005000        4.2199995000
  O         8.4499995000        2.9300005000        6.9899995000
  H         8.0399995000        2.8700005000        7.8599995000
  H         7.8399995000        2.4700005000        6.4199995000
  O        11.1699995000        3.4000005000        0.2699995000
  H        11.5699985000        2.8700005000        0.9799995000
  H        11.3699995000        2.9200005000       -0.5200005000
  O         2.7799995000        7.8000005000        7.4099995000
  H         2.6499995000        8.2600005000        8.2299995000
  H         3.0799995000        8.4800005000        6.7999995000
  O         7.3299995000       18.2900015000        4.1099995000
  H         7.5799995000       18.6599995000        3.2599995000
  H         6.4099995000       18.0599995000        4.0199995000
  O        14.1300005000       10.6499995000        0.6099995000
  H        14.8399995000       10.1399995000        0.2399995000
  H        13.4700005000       10.0000005000        0.8599995000
  O         1.2099995000        7.7700005000       12.3399995000
  H         1.4399995000        7.0900005000       11.7199995000
  H         2.0499995000        8.1800005000       12.5699995000
  O        11.8299985000       11.5600005000       16.1099995000
  H        11.9600005000       10.6200005000       15.9899985000
  H        10.9899995000       11.6400015000       16.5399995000
  O         8.0899995000        5.5300005000        7.4599995000
  H         8.1799995000        4.6200005000        7.1999995000
  H         8.9399995000        5.9300005000        7.2499995000
  O         7.7299995000        0.4200005000       14.7499985000
  H         8.2899995000        0.0200005000       14.0799995000
  H         7.3299995000       -0.3299995000       15.1999995000
  O        12.9499995000        4.5500005000        5.5199995000
  H        13.1400005000        5.0800005000        6.2799995000
  H        13.3599995000        3.7000005000        5.6999995000
  O         4.0699995000        6.3200005000        4.8099995000
  H         4.8999995000        6.6000005000        5.1899995000
  H         3.4099995000        6.6600005000        5.4099995000
  O        17.9799985000        2.5400005000        4.1599995000
  H        18.6099995000        2.6900005000        4.8599995000
  H        17.3899985000        1.8700005000        4.4999995000
  O        17.0799985000        6.1600005000        7.1699995000
  H        16.8800005000        5.2500005000        7.3999995000
  H        16.6999995000        6.6700005000        7.8899995000
  O        16.8999985000       14.2400005000        2.5999995000
  H        17.0899995000       13.3000015000        2.6999995000
  H        17.2899995000       14.4600005000        1.7499995000
  O        13.4599995000        7.9000005000       13.4099995000
  H        13.8999995000        8.7400005000       13.4799995000
  H        12.9399995000        7.8500005000       14.2199995000
  O         2.0399995000       15.1000005000        1.5099995000
  H         2.5299995000       14.9800005000        0.6899995000
  H         2.5499995000       14.6200005000        2.1599995000
  O        16.2099985000        2.5200005000       16.2799995000
  H        16.8599995000        2.8300005000       16.9100005000
  H        16.1699995000        3.2100005000       15.6199985000
  O        17.4499995000       10.7600005000       13.2799995000
  H        17.7799995000       10.2800005000       12.5299985000
  H        17.4199995000       11.6700005000       12.9799995000
  O        10.0899995000        0.6300005000       12.1299995000
  H         9.9099995000        1.3700005000       12.7099995000
  H         9.5399995000        0.7800005000       11.3599995000
  O         2.5199995000        6.8700005000        2.4499995000
  H         2.6599995000        6.7700005000        3.3899995000
  H         2.9799995000        7.6900005000        2.2299995000
  O         8.6899995000        9.5900005000        6.4999995000
  H         8.8899995000        9.0200005000        5.7599995000
  H         9.4699995000        9.5500005000        7.0499995000
  O         2.9699995000       15.4200005000        6.9399995000
  H         3.7199995000       15.2900015000        7.5299995000
  H         2.6799995000       16.3199995000        7.1099995000
  O        15.6799995000        8.1100005000        0.8099995000
  H        14.9800005000        8.0800005000        1.4499995000
  H        16.4700005000        8.3200005000        1.3199995000
  O         3.4899995000        3.0400005000        5.4799995000
  H         2.9299995000        3.4700005000        6.1299995000
  H         2.9699995000        3.0500005000        4.6799995000
  O         7.0299995000       12.9600015000       18.4299995000
  H         7.3999995000       13.8400005000       18.4799985000
  H         7.1899995000       12.5600015000       19.2799995000
  O         2.5299995000        0.5900005000       18.3999985000
  H         2.5899995000        0.6600005000       19.3499995000
  H         2.4799995000        1.5000005000       18.0999995000
  O        16.1399985000        5.0200005000       15.0599995000
  H        16.7799995000        5.6200005000       15.4499995000
  H        15.2999995000        5.3300005000       15.3699995000
  O         0.2599995000       10.1200005000       17.7899995000
  H        -0.0600005000        9.8300005000       16.9299995000
  H         0.5099995000       11.0400005000       17.6500005000
  O        10.9700005000        6.1500005000        7.5799995000
  H        11.8799995000        6.2400005000        7.8800005000
  H        11.0099995000        6.3700005000        6.6499995000
  O        11.0699995000       16.1100005000       14.7899995000
  H        11.5999995000       15.3800005000       14.4999985000
  H        11.3000005000       16.2300015000       15.7099995000
  O         1.1599995000       14.8000015000        4.8499995000
  H         1.0199995000       13.8500005000        4.8599995000
  H         1.8499995000       14.9500005000        5.4999995000
  O         8.9099995000       12.1100005000       16.4199995000
  H         8.9299995000       12.8500005000       15.8299985000
  H         8.3699985000       12.4000005000       17.1599985000
  O        18.4000005000       10.2600005000        1.2099995000
  H        18.6399985000       10.3500005000        0.2899995000
  H        17.8199985000       11.0100005000        1.3799995000
  O         4.4899995000       13.1200005000       17.1899995000
  H         5.3299995000       12.9300005000       17.6099995000
  H         4.7199995000       13.3400005000       16.2799995000
  O         4.5299995000       14.3600005000       14.6400005000
  H         3.7599995000       14.3900005000       14.0799995000
  H         4.4399995000       15.1200005000       15.2099995000
  O        10.3800005000        0.2900005000        0.4699995000
  H        10.0999995000       -0.6299995000        0.5499995000
  H         9.5999995000        0.8000005000        0.6799995000
  O         1.7699995000        9.7600005000        2.8799995000
  H         0.8499995000        9.5100005000        2.8699995000
  H         1.9799995000        9.9300005000        1.9599995000
  O        10.5999995000       12.2200005000        5.5499995000
  H        11.0399995000       12.7700005000        6.1899995000
  H        10.8599995000       11.3300005000        5.7699995000
  O         0.3899995000        2.7200005000        6.7399995000
  H         0.7299995000        2.2000005000        7.4699995000
  H         0.1699995000        3.5700005000        7.1299995000
  O        12.6899995000        5.2700005000       17.2099995000
  H        13.2599995000        4.9500005000       17.9199995000
  H        11.7999995000        5.0500005000       17.4899985000
  O        16.5500005000        0.0500005000       14.3499995000
  H        16.3199985000        0.7800005000       13.7699995000
  H        16.5299995000        0.4200005000       15.2199995000
  O        17.6199995000        6.8900005000       16.6799995000
  H        18.1400005000        7.1900005000       15.9299995000
  H        18.1400005000        7.1400005000       17.4599995000
  O         1.8899995000       18.6000005000       11.2799985000
  H         2.2599995000       18.1900005000       12.0599995000
  H         1.8999995000       17.9099995000       10.6300005000
  O         0.7299995000        8.6900005000       15.1399995000
  H         1.6199995000        9.0200005000       15.1999995000
  H         0.6099995000        8.5000005000       14.2199995000
  O        18.9000005000        7.6800005000        5.8499995000
  H        18.4099985000        7.0000005000        6.3199995000
  H        19.5600005000        7.2100005000        5.3499995000
  O        11.1699995000        3.0200005000        7.8999995000
  H        11.0599995000        3.9500005000        7.6899995000
  H        10.5099995000        2.5700005000        7.3799995000
  O        11.8999985000       17.6300015000       12.4899995000
  H        11.2399985000       18.3400005000       12.5299985000
  H        11.5899995000       16.9899995000       13.1499995000
  O         8.0399995000        2.8100005000       11.4899985000
  H         7.7499995000        3.3000005000       12.2599995000
  H         8.7199995000        3.3600005000       11.0899995000
  O        18.7599995000       10.2900015000        6.4499995000
  H        19.2799995000       10.8100005000        7.0599995000
  H        18.9700005000        9.3800005000        6.6699995000
  O        17.2399985000       11.9200015000        8.6399995000
  H        18.1799995000       11.8000005000        8.6799995000
  H        16.9900005000       11.6700005000        7.7499995000
  O        14.5599995000        1.8300005000        6.2399995000
  H        14.6299995000        1.3800005000        5.3999995000
  H        14.1499995000        1.1800005000        6.8199995000
  O        17.2599995000       12.2399995000       17.9299995000
  H        16.4299995000       12.1800005000       18.4299995000
  H        17.0600005000       11.8100005000       17.0899995000
  O        12.9199995000        8.4400005000        1.6999995000
  H        12.9199995000        8.6200005000        2.6399995000
  H        12.4599995000        7.6100005000        1.6199995000
  O        19.0299995000        4.4600005000        9.1999995000
  H        18.9600005000        3.5300005000        9.4099995000
  H        18.6999995000        4.9000005000        9.9899995000
  O         4.5799995000       16.3600005000       16.8199985000
  H         4.7099995000       16.1200005000       17.7399985000
  H         4.0999995000       17.1900005000       16.8499995000
  O         6.7799995000        1.2100005000        1.0099995000
  H         6.9299995000        2.1500005000        0.8999995000
  H         5.8299985000        1.1200005000        0.9899995000
  O         7.7299995000        6.0900005000        1.6599995000
  H         7.0499995000        6.3700005000        2.2699995000
  H         8.5199995000        6.0500005000        2.1999995000
  O         5.7299995000        0.6000005000       11.7499985000
  H         5.9299995000       -0.2899995000       11.4599995000
  H         6.5499995000        0.9200005000       12.1400005000
  O        13.8299995000       14.2600005000        2.2599995000
  H        13.5099995000       15.1399995000        2.4499995000
  H        14.7200005000       14.2400005000        2.5999995000
  O         9.5099995000        4.9000005000        9.8099995000
  H         8.7299995000        5.1000005000        9.2899995000
  H        10.2499995000        5.1600005000        9.2599995000
  O         6.4599995000        7.1800005000        5.9799995000
  H         6.9699995000        6.7200005000        6.6399995000
  H         5.9399995000        7.8100005000        6.4699995000
  O         3.3399995000        0.2000005000        5.5199995000
  H         3.3499995000        1.1500005000        5.3800005000
  H         2.4099995000       -0.0199995000        5.6199995000
  O         3.6799995000       17.1200005000       13.2999995000
  H         3.7699995000       17.9400005000       13.7899995000
  H         4.5399995000       16.9899995000       12.8899995000
  O        12.0599995000        2.7400005000       10.5399985000
  H        11.6599995000        2.5100005000        9.7099995000
  H        11.3399995000        2.8900005000       11.1299995000
  O        18.9999995000       15.8200005000       13.4799995000
  H        19.2199985000       16.6200005000       13.9399995000
  H        18.4399995000       16.1100005000       12.7499995000
  O         6.6799995000        2.5900005000        9.0999995000
  H         6.8399995000        2.7100005000       10.0399995000
  H         5.7299995000        2.5000005000        9.0399995000
  O        13.5099995000       15.1399995000       16.5999995000
  H        13.7399985000       14.3700005000       17.1300005000